281
Atoms. Timestep: 0
1 8.25 8.25 8.25
2 9.32 8.25 8.25
2 7.893 8.995 8.93
2 7.893 7.289 8.556
2 7.893 8.466 7.265
2 6.999 3.25 40.202
3 6.25 3.25 39.595
2 5.501 3.25 40.202
2 10.999 4.25 40.202
3 10.25 4.25 39.595
2 9.501 4.25 40.202
2 3.999 7.25 40.202
3 3.25 7.25 39.595
2 2.501 7.25 40.202
2 13.999 7.25 40.202
3 13.25 7.25 39.595
2 12.501 7.25 40.202
2 7.999 8.25 40.202
3 7.25 8.25 39.595
2 6.501 8.25 40.202
2 4.999 11.25 40.202
3 4.25 11.25 39.595
2 3.501 11.25 40.202
2 10.999 11.25 40.202
3 10.25 11.25 39.595
2 9.501 11.25 40.202
2 7.999 14.25 -0.308
3 7.25 14.25 40.595
2 6.501 14.25 -0.308
2 8.999 0.25 0.692
3 8.25 0.25 0.085
2 7.501 0.25 0.692
2 15.999 10.25 0.692
3 15.25 10.25 0.085
2 14.501 10.25 0.692
2 12.999 14.25 0.692
3 12.25 14.25 0.085
2 11.501 14.25 0.692
2 3.999 1.25 1.692
3 3.25 1.25 1.085
2 2.501 1.25 1.692
2 12.999 1.25 1.692
3 12.25 1.25 1.085
2 11.501 1.25 1.692
2 15.999 4.25 1.692
3 15.25 4.25 1.085
2 14.501 4.25 1.692
2 1.999 5.25 1.692
3 1.25 5.25 1.085
2 0.501 5.25 1.692
2 10.999 7.25 1.692
3 10.25 7.25 1.085
2 9.501 7.25 1.692
2 0.999 9.25 1.692
3 0.25 9.25 1.085
2 -0.499 9.25 1.692
2 2.999 13.25 1.692
3 2.25 13.25 1.085
2 1.501 13.25 1.692
2 6.999 4.25 2.692
3 6.25 4.25 2.085
2 5.501 4.25 2.692
2 4.999 8.25 2.692
3 4.25 8.25 2.085
2 3.501 8.25 2.692
2 7.999 11.25 2.692
3 7.25 11.25 2.085
2 6.501 11.25 2.692
2 5.999 16.25 2.692
3 5.25 16.25 2.085
2 4.501 16.25 2.692
2 9.999 17.25 2.692
3 9.25 17.25 2.085
2 8.501 17.25 2.692
2 17.999 7.25 3.692
3 17.25 7.25 3.085
2 16.501 7.25 3.692
2 12.999 10.25 3.692
3 12.25 10.25 3.085
2 11.501 10.25 3.692
2 15.999 13.25 3.692
3 15.25 13.25 3.085
2 14.501 13.25 3.692
2 6.999 38.76 4.692
3 6.25 38.76 4.085
2 5.501 38.76 4.692
2 10.999 39.76 4.692
3 10.25 39.76 4.085
2 9.501 39.76 4.692
2 15.999 1.25 4.692
3 15.25 1.25 4.085
2 14.501 1.25 4.692
2 0.999 2.25 4.692
3 0.25 2.25 4.085
2 -0.499 2.25 4.692
2 10.999 4.25 4.692
3 10.25 4.25 4.085
2 9.501 4.25 4.692
2 -0.001 12.25 4.692
3 39.76 12.25 4.085
2 39.011 12.25 4.692
2 11.999 14.25 4.692
3 11.25 14.25 4.085
2 10.501 14.25 4.692
2 4.999 2.25 5.692
3 4.25 2.25 5.085
2 3.501 2.25 5.692
2 14.999 5.25 5.692
3 14.25 5.25 5.085
2 13.501 5.25 5.692
2 -0.001 6.25 5.692
3 39.76 6.25 5.085
2 39.011 6.25 5.692
2 3.999 11.25 5.692
3 3.25 11.25 5.085
2 2.501 11.25 5.692
2 7.999 14.25 5.692
3 7.25 14.25 5.085
2 6.501 14.25 5.692
2 2.999 15.25 5.692
3 2.25 15.25 5.085
2 1.501 15.25 5.692
2 3.999 6.25 6.692
3 3.25 6.25 6.085
2 2.501 6.25 6.692
2 15.999 9.25 6.692
3 15.25 9.25 6.085
2 14.501 9.25 6.692
2 14.999 16.25 6.692
3 14.25 16.25 6.085
2 13.501 16.25 6.692
2 13.999 39.76 7.692
3 13.25 39.76 7.085
2 12.501 39.76 7.692
2 8.999 1.25 7.692
3 8.25 1.25 7.085
2 7.501 1.25 7.692
2 17.999 3.25 7.692
3 17.25 3.25 7.085
2 16.501 3.25 7.692
2 11.999 11.25 7.692
3 11.25 11.25 7.085
2 10.501 11.25 7.692
2 17.999 13.25 7.692
3 17.25 13.25 7.085
2 16.501 13.25 7.692
2 5.999 17.25 7.692
3 5.25 17.25 7.085
2 4.501 17.25 7.692
2 10.999 17.25 7.692
3 10.25 17.25 7.085
2 9.501 17.25 7.692
2 4.999 38.76 8.692
3 4.25 38.76 8.085
2 3.501 38.76 8.692
2 1.999 1.25 8.692
3 1.25 1.25 8.085
2 0.501 1.25 8.692
2 12.999 3.25 8.692
3 12.25 3.25 8.085
2 11.501 3.25 8.692
2 39.509 9.25 8.692
3 38.76 9.25 8.085
2 38.011 9.25 8.692
2 -0.001 13.25 8.692
3 39.76 13.25 8.085
2 39.011 13.25 8.692
2 5.999 3.25 9.692
3 5.25 3.25 9.085
2 4.501 3.25 9.692
2 -0.001 5.25 9.692
3 39.76 5.25 9.085
2 39.011 5.25 9.692
2 15.999 6.25 9.692
3 15.25 6.25 9.085
2 14.501 6.25 9.692
2 2.999 9.25 9.692
3 2.25 9.25 9.085
2 1.501 9.25 9.692
2 5.999 12.25 9.692
3 5.25 12.25 9.085
2 4.501 12.25 9.692
2 8.999 38.76 10.692
3 8.25 38.76 10.085
2 7.501 38.76 10.692
2 15.999 1.25 10.692
3 15.25 1.25 10.085
2 14.501 1.25 10.692
2 14.999 10.25 10.692
3 14.25 10.25 10.085
2 13.501 10.25 10.692
2 9.999 13.25 10.692
3 9.25 13.25 10.085
2 8.501 13.25 10.692
2 13.999 14.25 10.692
3 13.25 14.25 10.085
2 12.501 14.25 10.692
2 2.999 15.25 10.692
3 2.25 15.25 10.085
2 1.501 15.25 10.692
2 9.999 2.25 11.692
3 9.25 2.25 11.085
2 8.501 2.25 11.692
2 7.999 6.25 11.692
3 7.25 6.25 11.085
2 6.501 6.25 11.692
2 6.999 16.25 11.692
3 6.25 16.25 11.085
2 5.501 16.25 11.692
2 4.999 39.76 12.692
3 4.25 39.76 12.085
2 3.501 39.76 12.692
2 12.999 39.76 12.692
3 12.25 39.76 12.085
2 11.501 39.76 12.692
2 1.999 2.25 12.692
3 1.25 2.25 12.085
2 0.501 2.25 12.692
2 13.999 4.25 12.692
3 13.25 4.25 12.085
2 12.501 4.25 12.692
2 2.999 6.25 12.692
3 2.25 6.25 12.085
2 1.501 6.25 12.692
2 11.999 8.25 12.692
3 11.25 8.25 12.085
2 10.501 8.25 12.692
2 17.999 8.25 12.692
3 17.25 8.25 12.085
2 16.501 8.25 12.692
2 -0.001 9.25 12.692
3 39.76 9.25 12.085
2 39.011 9.25 12.692
2 7.999 10.25 12.692
3 7.25 10.25 12.085
2 6.501 10.25 12.692
2 10.999 17.25 12.692
3 10.25 17.25 12.085
2 9.501 17.25 12.692
2 3.999 10.25 13.692
3 3.25 10.25 13.085
2 2.501 10.25 13.692
2 16.999 12.25 13.692
3 16.25 12.25 13.085
2 15.501 12.25 13.692
2 8.999 39.76 14.692
3 8.25 39.76 14.085
2 7.501 39.76 14.692
2 5.999 3.25 14.692
3 5.25 3.25 14.085
2 4.501 3.25 14.692
2 10.999 12.25 14.692
3 10.25 12.25 14.085
2 9.501 12.25 14.692
2 2.999 14.25 14.692
3 2.25 14.25 14.085
2 1.501 14.25 14.692
2 13.999 15.25 14.692
3 13.25 15.25 14.085
2 12.501 15.25 14.692
2 11.999 2.25 15.692
3 11.25 2.25 15.085
2 10.501 2.25 15.692
2 8.999 6.25 15.692
3 8.25 6.25 15.085
2 7.501 6.25 15.692
2 15.999 6.25 15.692
3 15.25 6.25 15.085
2 14.501 6.25 15.692
2 6.999 13.25 15.692
3 6.25 13.25 15.085
2 5.501 13.25 15.692
2 3.999 6.25 16.692
3 3.25 6.25 16.085
2 2.501 6.25 16.692
2 12.999 9.25 16.692
3 12.25 9.25 16.085
2 11.501 9.25 16.692
2 6.999 9.25 17.692
3 6.25 9.25 17.085
2 5.501 9.25 17.692
281
Atoms. Timestep: 1
1 8.2676 8.26225 8.24687
2 9.35229 8.17448 8.24237
2 7.91854 8.99161 9.00715
2 7.88273 7.25892 8.52322
2 7.85277 8.48565 7.32844
2 6.99132 3.22903 40.1829
3 6.24185 3.24413 39.5849
2 5.50229 3.23587 40.1919
2 11.0021 4.25171 40.2202
3 10.2459 4.2475 39.5966
2 9.50812 4.25856 40.2243
2 3.994 7.26125 40.1756
3 3.24734 7.24249 39.5802
2 2.54715 7.26658 40.218
2 14.0102 7.26764 40.1977
3 13.2443 7.24217 39.5966
2 12.5168 7.25731 40.214
2 8.01284 8.21962 40.2556
3 7.25671 8.25571 39.5989
2 6.48873 8.21946 40.1593
2 4.97367 11.2176 40.2391
3 4.24809 11.2577 39.5899
2 3.47004 11.2294 40.2061
2 11.0428 11.2215 40.2118
3 10.2604 11.242 39.6015
2 9.49636 11.2098 40.1709
2 8.01854 14.2236 -0.260094
3 7.23726 14.2447 40.5838
2 6.49931 14.229 -0.289481
2 8.96807 0.236988 0.664671
3 8.2592 0.265664 0.0956187
2 7.4847 0.199138 0.717647
2 15.9895 10.2543 0.697435
3 15.2498 10.2586 0.0755701
2 14.4819 10.2639 0.704158
2 12.9798 14.2256 0.704653
3 12.2477 14.2606 0.0844686
2 11.4668 14.1925 0.656324
2 4.03213 1.2751 1.72811
3 3.23373 1.25118 1.07853
2 2.50078 1.21782 1.69425
2 12.9962 1.2458 1.71178
3 12.2458 1.24006 1.08402
2 11.4937 1.2784 1.68788
2 16.0175 4.25542 1.6611
3 15.254 4.2401 1.09721
2 14.4832 4.28239 1.69721
2 2.01789 5.28381 1.65484
3 1.24858 5.2587 1.07639
2 0.469706 5.28747 1.68214
2 10.9948 7.24615 1.6963
3 10.2515 7.24661 1.08147
2 9.48187 7.29841 1.6884
2 1.0064 9.24321 1.72679
3 0.264356 9.24883 1.07098
2 -0.504544 9.26798 1.66
2 3.01199 13.2293 1.6805
3 2.25218 13.2443 1.08911
2 1.49397 13.2818 1.65933
2 6.97831 4.35306 2.6514
3 6.25488 4.2519 2.0793
2 5.48971 4.21839 2.68255
2 4.99013 8.22776 2.65043
3 4.25933 8.25998 2.06937
2 3.51427 8.2022 2.69326
2 8.03395 11.2084 2.69718
3 7.24933 11.2561 2.09372
2 6.60415 11.177 2.67166
2 6.00665 16.3339 2.66603
3 5.25384 16.258 2.09518
2 4.46614 16.2692 2.70213
2 10.0102 17.2416 2.69801
3 9.24884 17.2467 2.0854
2 8.53201 17.2573 2.69468
2 18.033 7.2918 3.6797
3 17.2598 7.25841 3.0835
2 16.4855 7.24625 3.69901
2 12.9294 10.2593 3.71221
3 12.2539 10.2621 3.08399
2 11.5193 10.225 3.62897
2 16.0356 13.2553 3.72996
3 15.262 13.2551 3.07628
2 14.5061 13.236 3.72216
2 6.9883 38.6815 4.64822
3 6.24893 38.7586 4.07412
2 5.49918 38.7863 4.65967
2 10.9718 39.7481 4.69386
3 10.2494 39.7486 4.07884
2 9.49868 39.7012 4.65853
2 16.0245 1.21836 4.73044
3 15.2377 1.24806 4.0835
2 14.444 1.27942 4.72996
2 0.996096 2.21247 4.70981
3 0.234235 2.2542 4.08536
2 -0.520177 2.18673 4.71399
2 11.0634 4.24427 4.71121
3 10.2513 4.24975 4.06095
2 9.49232 4.30367 4.69056
2 -0.041209 12.2013 4.6671
3 39.7596 12.2516 4.08609
2 38.9997 12.2887 4.74824
2 11.9553 14.2849 4.68475
3 11.2533 14.2537 4.07234
2 10.5431 14.2628 4.65939
2 4.95922 2.21837 5.71716
3 4.24579 2.2498 5.08283
2 3.52582 2.29077 5.72821
2 14.9528 5.24077 5.689
3 14.2517 5.25836 5.09424
2 13.4788 5.24647 5.6664
2 0.0193514 6.21047 5.70137
3 39.7617 6.25293 5.09079
2 38.9753 6.19898 5.65796
2 4.02671 11.2465 5.66926
3 3.24739 11.2553 5.08915
2 2.50752 11.2025 5.70446
2 7.96465 14.2274 5.64029
3 7.24419 14.2469 5.08293
2 6.43244 14.2574 5.69841
2 2.91948 15.2265 5.66304
3 2.24231 15.2602 5.0895
2 1.52024 15.257 5.70199
2 3.95333 6.25406 6.71689
3 3.23252 6.24924 6.08131
2 2.52206 6.22209 6.63813
2 15.9691 9.25389 6.66128
3 15.2574 9.25268 6.09058
2 14.4993 9.24907 6.7411
2 14.9928 16.2416 6.64887
3 14.2451 16.2467 6.10815
2 13.4589 16.2675 6.67067
2 14.0251 39.7854 7.66442
3 13.2546 39.7621 7.09162
2 12.4875 39.7962 7.63131
2 9.02674 1.23738 7.71582
3 8.25298 1.24378 7.09318
2 7.49307 1.23517 7.68173
2 17.9686 3.27001 7.66167
3 17.2535 3.24785 7.08137
2 16.4755 3.26538 7.69514
2 12.0303 11.2645 7.74243
3 11.2474 11.2494 7.08263
2 10.5109 11.2279 7.69442
2 17.9906 13.2492 7.66016
3 17.2429 13.246 7.08601
2 16.5431 13.2614 7.6538
2 5.93958 17.239 7.67618
3 5.25451 17.2487 7.08306
2 4.51288 17.2869 7.66218
2 11.0164 17.2596 7.67741
3 10.2578 17.2467 7.07575
2 9.46842 17.284 7.74096
2 4.98352 38.7572 8.6621
3 4.24936 38.7562 8.08146
2 3.48869 38.7412 8.71239
2 2.00768 1.20502 8.68203
3 1.2527 1.24874 8.09505
2 0.475778 1.25959 8.68493
2 13.0425 3.20794 8.68561
3 12.2571 3.26443 8.10158
2 11.426 3.29781 8.75456
2 39.5233 9.28163 8.68416
3 38.7579 9.24306 8.08188
2 38.0436 9.24688 8.64005
2 0.0601082 13.292 8.73212
3 39.7659 13.242 8.06974
2 39.0295 13.2208 8.67559
2 6.02305 3.2322 9.68535
3 5.24291 3.24822 9.09457
2 4.53136 3.22551 9.78641
2 0.00079413 5.25081 9.72731
3 39.7443 5.25242 9.08156
2 39.0973 5.25212 9.68061
2 15.9783 6.23183 9.68918
3 15.2438 6.25833 9.08613
2 14.4712 6.29055 9.69694
2 2.98629 9.18947 9.688
3 2.24851 9.2553 9.08399
2 1.48229 9.19159 9.69581
2 5.99664 12.23 9.72392
3 5.26117 12.2489 9.08267
2 4.41983 12.235 9.683
2 8.97735 38.7649 10.7302
3 8.25803 38.7642 10.0902
2 7.51947 38.7371 10.6773
2 15.9915 1.297 10.6371
3 15.2526 1.24246 10.0871
2 14.4926 1.23738 10.6234
2 14.9897 10.2477 10.6472
3 14.2672 10.2395 10.0771
2 13.5165 10.2479 10.6641
2 10.0034 13.2572 10.7179
3 9.2473 13.2471 10.0777
2 8.46973 13.1934 10.7053
2 13.9965 14.271 10.6663
3 13.2514 14.244 10.0746
2 12.4893 14.2822 10.6379
2 2.96596 15.2965 10.7212
3 2.23228 15.2503 10.0936
2 1.54415 15.2298 10.682
2 9.98763 2.23461 11.6948
3 9.24769 2.24066 11.0857
2 8.57054 2.24629 11.6678
2 7.98885 6.26919 11.6897
3 7.26287 6.25579 11.0922
2 6.50236 6.27156 11.6541
2 7.03545 16.2323 11.6884
3 6.24553 16.2498 11.0788
2 5.47147 16.2528 11.7394
2 5.02113 39.7627 12.6925
3 4.2487 39.7701 12.0786
2 3.49151 39.7641 12.6304
2 13.0191 39.7563 12.7325
3 12.2359 39.7584 12.0939
2 11.4919 39.7368 12.661
2 2.05183 2.26513 12.6661
3 1.25166 2.2446 12.0973
2 0.469127 2.23058 12.6705
2 14.0458 4.22013 12.6447
3 13.2431 4.23604 12.0877
2 12.3989 4.32309 12.737
2 3.01439 6.22888 12.701
3 2.2466 6.2478 12.098
2 1.44695 6.2086 12.714
2 11.9533 8.31674 12.7124
3 11.2635 8.24056 12.0947
2 10.5498 8.25305 12.715
2 17.9681 8.30544 12.7276
3 17.2508 8.2467 12.0863
2 16.5005 8.2787 12.6885
2 0.00528035 9.30042 12.6949
3 39.7657 9.24882 12.1003
2 38.9883 9.22433 12.6577
2 7.99404 10.3038 12.6836
3 7.24505 10.2351 12.0867
2 6.51397 10.2791 12.6683
2 10.9725 17.2674 12.7291
3 10.2501 17.2549 12.082
2 9.51205 17.2991 12.7289
2 4.00903 10.209 13.6897
3 3.24628 10.2557 13.0802
2 2.48022 10.2619 13.7084
2 16.9879 12.2367 13.7007
3 16.2533 12.2588 13.0877
2 15.4886 12.256 13.7225
2 8.9589 39.7249 14.6775
3 8.273 39.7596 14.083
2 7.45707 39.772 14.6501
2 5.97804 3.23124 14.7446
3 5.25419 3.2594 14.0847
2 4.45393 3.22767 14.7425
2 11.0498 12.239 14.68
3 10.2573 12.2573 14.0979
2 9.50133 12.262 14.7195
2 2.97743 14.2165 14.7128
3 2.24736 14.2659 14.0972
2 1.51811 14.2926 14.7063
2 14.0752 15.2554 14.6992
3 13.2491 15.2464 14.0908
2 12.4687 15.3007 14.7084
2 12.0045 2.24696 15.6891
3 11.249 2.24775 15.0992
2 10.479 2.29148 15.7365
2 9.00194 6.27792 15.6739
3 8.25193 6.24709 15.0879
2 7.53897 6.26348 15.7046
2 16.0016 6.23696 15.6489
3 15.2609 6.25523 15.0791
2 14.4554 6.23448 15.7234
2 6.92837 13.2013 15.6808
3 6.25311 13.2423 15.087
2 5.4751 13.3131 15.6946
2 3.98254 6.24791 16.6955
3 3.24651 6.25437 16.0764
2 2.54322 6.29283 16.6385
2 13.0379 9.2617 16.684
3 12.2463 9.24593 16.0719
2 11.4821 9.24407 16.7223
2 7.01521 9.25787 17.6824
3 6.25016 9.23236 17.0923
2 5.45708 9.2268 17.6375
281
Atoms. Timestep: 2
1 8.28521 8.2745 8.24374
2 9.38458 8.09897 8.23474
2 7.94408 8.98823 9.08429
2 7.87247 7.22884 8.49044
2 7.81254 8.50529 7.39187
2 6.98363 3.20807 40.1637
3 6.23369 3.23827 39.5748
2 5.50358 3.22175 40.1819
2 11.0052 4.25342 40.2384
3 10.2418 4.245 39.5982
2 9.51523 4.26711 40.2466
2 3.98901 7.27249 40.1491
3 3.24468 7.23497 39.5655
2 2.5933 7.28316 40.2339
2 14.0215 7.28528 40.1933
3 13.2387 7.23435 39.5982
2 12.5325 7.26462 40.2259
2 8.02668 8.18924 40.3093
3 7.26342 8.26142 39.6029
2 6.47645 8.18892 40.1165
2 4.94834 11.1852 40.2762
3 4.24618 11.2653 39.5848
2 3.43908 11.2089 40.2102
2 11.0865 11.193 40.2217
3 10.2708 11.2341 39.608
2 9.49173 11.1697 40.1397
2 8.03808 14.1972 -0.212189
3 7.22453 14.2394 40.5727
2 6.49762 14.2081 -0.270962
2 8.93714 0.223976 0.637341
3 8.2684 0.281329 0.106237
2 7.46839 0.148277 0.743294
2 15.9799 10.2585 0.70287
3 15.2496 10.2672 0.0661401
2 14.4628 10.2778 0.716316
2 12.9606 14.2012 0.717306
3 12.2454 14.2712 0.0839371
2 11.4327 14.1351 0.620647
2 4.06527 1.30019 1.76423
3 3.21746 1.25236 1.07206
2 2.50056 1.18564 1.6965
2 12.9934 1.2416 1.73156
3 12.2415 1.23012 1.08304
2 11.4864 1.30681 1.68377
2 16.0361 4.26084 1.63021
3 15.2581 4.23019 1.10943
2 14.4653 4.31478 1.70242
2 2.03679 5.31763 1.61768
3 1.24716 5.26741 1.06779
2 0.438411 5.32493 1.67229
2 10.9906 7.2423 1.70061
3 10.2531 7.24322 1.07793
2 9.46274 7.34682 1.68481
2 1.01379 9.23643 1.76159
3 0.278712 9.24765 1.05696
2 -0.510088 9.28597 1.62801
2 3.02499 13.2086 1.669
3 2.25435 13.2385 1.09321
2 1.48694 13.3136 1.62667
2 6.95762 4.45612 2.61079
3 6.25976 4.2538 2.0736
2 5.47842 4.18679 2.6731
2 4.98126 8.20552 2.60886
3 4.26867 8.26995 2.05374
2 3.52755 8.15439 2.69452
2 8.0689 11.1669 2.70236
3 7.24866 11.2623 2.10244
2 6.7073 11.104 2.65133
2 6.01431 16.4178 2.64006
3 5.25769 16.266 2.10535
2 4.43127 16.2883 2.71227
2 10.0213 17.2333 2.70402
3 9.24768 17.2434 2.0858
2 8.56303 17.2646 2.69737
2 18.067 7.33361 3.66741
3 17.2697 7.26682 3.082
2 16.4701 7.24251 3.70601
2 12.8599 10.2686 3.73243
3 12.2579 10.2742 3.08297
2 11.5376 10.2 3.56595
2 16.0723 13.2605 3.76793
3 15.2739 13.2602 3.06755
2 14.5111 13.2219 3.75232
2 6.97761 38.6029 4.60443
3 6.24786 38.7572 4.06323
2 5.49735 38.8126 4.62734
2 10.9446 39.7363 4.69572
3 10.2488 39.7373 4.07268
2 9.49636 39.6425 4.62507
2 16.05 1.18671 4.76889
3 15.2254 1.24612 4.08199
2 14.387 1.30884 4.76792
2 0.993192 2.17494 4.72762
3 0.21847 2.25839 4.08573
2 -0.541353 2.12346 4.73597
2 11.1277 4.23853 4.73042
3 10.2526 4.24949 4.03689
2 9.48363 4.35733 4.68911
2 -0.081418 12.1526 4.64219
3 39.7593 12.2533 4.08719
2 38.9884 12.3275 4.80448
2 11.9115 14.3198 4.6775
3 11.2565 14.2575 4.05969
2 10.5851 14.2756 4.62679
2 4.91943 2.18675 5.74232
3 4.24158 2.24961 5.08065
2 3.55065 2.33154 5.76443
2 14.9067 5.23153 5.686
3 14.2535 5.26673 5.10348
2 13.4565 5.24293 5.6408
2 0.0397029 6.17094 5.71075
3 39.7635 6.25586 5.09657
2 38.9395 6.14796 5.62392
2 4.05443 11.2429 5.64652
3 3.24478 11.2606 5.0933
2 2.51403 11.155 5.71693
2 7.9303 14.2047 5.58859
3 7.23839 14.2437 5.08086
2 6.36388 14.2647 5.70481
2 2.83996 15.2029 5.63407
3 2.23461 15.2705 5.09401
2 1.53948 15.264 5.71197
2 3.90766 6.25812 6.74178
3 3.21505 6.24848 6.07763
2 2.54311 6.19419 6.58426
2 15.9392 9.25777 6.63057
3 15.2649 9.25536 6.09616
2 14.4977 9.24814 6.7902
2 14.9865 16.2331 6.60575
3 14.2403 16.2434 6.13129
2 13.4169 16.2851 6.64934
2 14.0512 39.8108 7.63684
3 13.2592 39.7642 7.09823
2 12.474 39.8325 7.57062
2 9.05449 1.22477 7.73963
3 8.25595 1.23756 7.10135
2 7.48513 1.22034 7.67145
2 17.9381 3.29002 7.63134
3 17.2571 3.2457 7.07774
2 16.4499 3.28076 7.69828
2 12.0616 11.2791 7.79287
3 11.2448 11.2489 7.08026
2 10.5209 11.2057 7.69684
2 17.9821 13.2484 7.62832
3 17.2357 13.2421 7.08702
2 16.5852 13.2728 7.61559
2 5.88015 17.228 7.66036
3 5.25903 17.2475 7.08112
2 4.52476 17.3237 7.63236
2 11.0338 17.2691 7.66282
3 10.2657 17.2433 7.0665
2 9.43584 17.318 7.78993
2 4.96805 38.7543 8.6322
3 4.24873 38.7524 8.07793
2 3.47639 38.7224 8.73278
2 2.01636 1.16005 8.67206
3 1.2554 1.24749 8.1051
2 0.450557 1.26919 8.67787
2 13.0861 3.16587 8.67922
3 12.2641 3.27887 8.11816
2 11.351 3.34563 8.81712
2 39.5376 9.31326 8.67631
3 38.7558 9.23613 8.07877
2 38.0762 9.24375 8.5881
2 0.121216 13.334 8.77224
3 39.7718 13.234 8.05449
2 39.0481 13.1915 8.65918
2 6.0471 3.21439 9.67871
3 5.23582 3.24644 9.10414
2 4.56172 3.20103 9.88083
2 0.00258826 5.25163 9.76262
3 39.7285 5.25484 9.07812
2 39.1836 5.25423 9.66922
2 15.9577 6.21365 9.68636
3 15.2375 6.26667 9.08726
2 14.4414 6.33111 9.70188
2 2.97358 9.12895 9.68401
3 2.24701 9.26061 9.08298
2 1.46357 9.13318 9.69963
2 5.99428 12.2101 9.75583
3 5.27233 12.2477 9.08035
2 4.33866 12.2199 9.674
2 8.9557 38.7697 10.7683
3 8.26606 38.7684 10.0954
2 7.53794 38.7142 10.6626
2 15.9841 1.344 10.5822
3 15.2551 1.23493 10.0892
2 14.4842 1.22476 10.5548
2 14.9805 10.2454 10.6024
3 14.2843 10.229 10.0693
2 13.5319 10.2457 10.6362
2 10.0077 13.2644 10.7438
3 9.2446 13.2441 10.0703
2 8.43847 13.1367 10.7186
2 13.9939 14.2921 10.6406
3 13.2528 14.2379 10.0642
2 12.4775 14.3143 10.5838
2 2.93292 15.3429 10.7503
3 2.21455 15.2506 10.1022
2 1.58731 15.2095 10.6721
2 9.97625 2.21921 11.6976
3 9.24538 2.23131 11.0865
2 8.64008 2.24258 11.6435
2 7.97869 6.28839 11.6873
3 7.27575 6.26157 11.0994
2 6.50372 6.29312 11.6162
2 7.07191 16.2146 11.6847
3 6.24106 16.2496 11.0727
2 5.44193 16.2557 11.7867
2 5.04326 39.7654 12.6931
3 4.24741 39.7801 12.0722
2 3.48201 39.7682 12.5688
2 13.0391 39.7526 12.7729
3 12.2218 39.7568 12.1027
2 11.4827 39.7136 12.6301
2 2.10467 2.28026 12.6401
3 1.25331 2.23921 12.1096
2 0.437254 2.21117 12.6491
2 14.0925 4.19025 12.5974
3 13.2361 4.22207 12.0903
2 12.2967 4.39618 12.782
2 3.02978 6.20776 12.71
3 2.24319 6.24561 12.111
2 1.3929 6.1672 12.7359
2 11.9077 8.38349 12.7329
3 11.277 8.23112 12.1045
2 10.5985 8.25609 12.7379
2 17.9372 8.36087 12.7633
3 17.2516 8.2434 12.0876
2 16.4999 8.3074 12.6851
2 0.0115607 9.35084 12.6978
3 39.7713 9.24763 12.1157
2 38.9655 9.19866 12.6234
2 7.98908 10.3576 12.6752
3 7.24011 10.2203 12.0883
2 6.52695 10.3081 12.6446
2 10.9461 17.2848 12.7662
3 10.2502 17.2598 12.079
2 9.5231 17.3482 12.7657
2 4.01905 10.1679 13.6874
3 3.24257 10.2613 13.0754
2 2.45944 10.2738 13.7248
2 16.9768 12.2234 13.7093
3 16.2567 12.2676 13.0903
2 15.4762 12.2619 13.753
2 8.91881 39.6898 14.663
3 8.296 39.7592 14.0811
2 7.41313 39.784 14.6082
2 5.95709 3.21249 14.7971
3 5.25837 3.26879 14.0843
2 4.40687 3.20535 14.7929
2 11.1006 12.2281 14.668
3 10.2647 12.2647 14.1109
2 9.50166 12.2739 14.7469
2 2.95586 14.183 14.7337
3 2.24472 14.2818 14.1094
2 1.53522 14.3352 14.7207
2 14.1514 15.2609 14.7063
3 13.2482 15.2428 14.0966
2 12.4363 15.3514 14.7248
2 12.01 2.24391 15.6863
3 11.248 2.24549 15.1133
2 10.4571 2.33296 15.781
2 9.00488 6.30584 15.6557
3 8.25385 6.24418 15.0908
2 7.57695 6.27695 15.7172
2 16.0042 6.22391 15.6058
3 15.2718 6.26047 15.0731
2 14.4098 6.21896 15.7549
2 6.85775 13.1525 15.6697
3 6.25622 13.2346 15.089
2 5.44919 13.3763 15.6972
2 3.96609 6.24583 16.6991
3 3.24302 6.25874 16.0679
2 2.58543 6.33566 16.5851
2 13.0768 9.2734 16.676
3 12.2427 9.24185 16.0587
2 11.4631 9.23814 16.7525
2 7.03142 9.26574 17.6729
3 6.25032 9.21471 17.0997
2 5.41316 9.2036 17.583
281
Atoms. Timestep: 3
1 8.30281 8.28675 8.24061
2 9.41687 8.02345 8.22711
2 7.96961 8.98484 9.16144
2 7.8622 7.19875 8.45766
2 7.77232 8.52494 7.45531
2 6.97595 3.1871 40.1446
3 6.22554 3.2324 39.5648
2 5.50487 3.20762 40.1718
2 11.0083 4.25512 40.2566
3 10.2376 4.2425 39.5999
2 9.52235 4.27567 40.2689
2 3.98401 7.28374 40.1227
3 3.24202 7.22746 39.5507
2 2.63946 7.29974 40.2499
2 14.0327 7.30292 40.189
3 13.233 7.22652 39.5999
2 12.5483 7.27193 40.2379
2 8.04053 8.15887 40.3629
3 7.27013 8.26713 39.6068
2 6.46418 8.15838 40.0738
2 4.92301 11.1528 40.3133
3 4.24427 11.273 39.5797
2 3.40812 11.1883 40.2143
2 11.1303 11.1645 40.2315
3 10.2812 11.2261 39.6145
2 9.48709 11.1295 40.1086
2 8.05762 14.1708 -0.164283
3 7.21179 14.2342 40.5615
2 6.49594 14.1871 -0.252443
2 8.90621 0.210965 0.610012
3 8.2776 0.296993 0.116856
2 7.45209 0.097415 0.768941
2 15.9704 10.2628 0.708305
3 15.2494 10.2758 0.0567102
2 14.4438 10.2917 0.728473
2 12.9413 14.1769 0.729959
3 12.2431 14.2818 0.0834057
2 11.3985 14.0776 0.584971
2 4.0984 1.32529 1.80034
3 3.20119 1.25354 1.06559
2 2.50033 1.15346 1.69875
2 12.9906 1.2374 1.75135
3 12.2373 1.22017 1.08206
2 11.4791 1.33521 1.67965
2 16.0546 4.26626 1.59931
3 15.2621 4.22029 1.12164
2 14.4475 4.34716 1.70764
2 2.05568 5.35144 1.58053
3 1.24573 5.27611 1.05918
2 0.407117 5.3624 1.66243
2 10.9864 7.23846 1.70491
3 10.2546 7.23983 1.0744
2 9.44361 7.39523 1.68121
2 1.02119 9.22964 1.79638
3 0.293068 9.24648 1.04295
2 -0.515632 9.30395 1.59601
2 3.03798 13.1879 1.6575
3 2.25653 13.2328 1.09732
2 1.47991 13.3454 1.594
2 6.93694 4.55918 2.57019
3 6.26464 4.2557 2.0679
2 5.46714 4.15518 2.66366
2 4.97239 8.18329 2.5673
3 4.278 8.27993 2.03811
2 3.54082 8.10659 2.69578
2 8.10385 11.1253 2.70754
3 7.24798 11.2684 2.11116
2 6.81045 11.031 2.63099
2 6.02196 16.5017 2.61409
3 5.26153 16.2741 2.11553
2 4.39641 16.3075 2.7224
2 10.0325 17.2249 2.71003
3 9.24652 17.2401 2.0862
2 8.59404 17.2719 2.70005
2 18.101 7.37541 3.65511
3 17.2795 7.27522 3.0805
2 16.4546 7.23876 3.71302
2 12.7903 10.2778 3.75264
3 12.2618 10.2863 3.08196
2 11.5559 10.175 3.50292
2 16.1089 13.2658 3.80589
3 15.2859 13.2654 3.05883
2 14.5162 13.2079 3.78247
2 6.96691 38.5244 4.56065
3 6.24679 38.7558 4.05235
2 5.49553 38.8389 4.59501
2 10.9174 39.7244 4.69758
3 10.2482 39.7259 4.06652
2 9.49404 39.5837 4.5916
2 16.0755 1.15507 4.80733
3 15.2132 1.24418 4.08049
2 14.3299 1.33825 4.80588
2 0.990288 2.13742 4.74543
3 0.202706 2.26259 4.08609
2 -0.56253 2.06019 4.75796
2 11.1921 4.2328 4.74962
3 10.2539 4.24924 4.01284
2 9.47495 4.411 4.68767
2 -0.121627 12.1038 4.61729
3 39.7589 12.2549 4.08828
2 38.9771 12.3662 4.86073
2 11.8678 14.3546 4.67025
3 11.2598 14.2612 4.04703
2 10.6272 14.2883 4.59418
2 4.87965 2.15512 5.76747
3 4.23738 2.24941 5.07848
2 3.57547 2.37232 5.80064
2 14.8605 5.2223 5.68301
3 14.2552 5.27509 5.11271
2 13.4343 5.2394 5.6152
2 0.0600543 6.13142 5.72012
3 39.7652 6.25879 5.10236
2 38.9038 6.09694 5.58988
2 4.08214 11.2394 5.62378
3 3.24216 11.2658 5.09745
2 2.52055 11.1075 5.72939
2 7.89595 14.1821 5.53688
3 7.23258 14.2406 5.07879
2 6.29531 14.2721 5.71122
2 2.76044 15.1794 5.60511
3 2.22692 15.2807 5.09851
2 1.55871 15.271 5.72196
2 3.86199 6.26218 6.76666
3 3.19757 6.24772 6.07394
2 2.56417 6.16628 6.53039
2 15.9093 9.26166 6.59985
3 15.2723 9.25803 6.10173
2 14.496 9.24721 6.83931
2 14.9803 16.2247 6.56262
3 14.2354 16.2401 6.15444
2 13.3748 16.3026 6.62802
2 14.0773 39.8361 7.60926
3 13.2638 39.7662 7.10485
2 12.4605 39.8687 7.50993
2 9.08223 1.21215 7.76345
3 8.25893 1.23135 7.10953
2 7.4772 1.20551 7.66118
2 17.9077 3.31004 7.60101
3 17.2606 3.24356 7.0741
2 16.4244 3.29614 7.70143
2 12.0929 11.2936 7.8433
3 11.2422 11.2483 7.0779
2 10.5308 11.1836 7.69925
2 17.9737 13.2476 7.59648
3 17.2286 13.2381 7.08803
2 16.6273 13.2841 7.57739
2 5.82073 17.217 7.64454
3 5.26354 17.2462 7.07918
2 4.53665 17.3606 7.60253
2 11.0512 17.2787 7.64823
3 10.2735 17.24 7.05725
2 9.40325 17.3521 7.83889
2 4.95257 38.7515 8.6023
3 4.24809 38.7486 8.07439
2 3.46408 38.7036 8.75317
2 2.02503 1.11507 8.6621
3 1.25811 1.24623 8.11515
2 0.425335 1.27878 8.6708
2 13.1296 3.12381 8.67283
3 12.2712 3.2933 8.13474
2 11.276 3.39344 8.87968
2 39.5518 9.34489 8.66847
3 38.7537 9.22919 8.07565
2 38.1088 9.24063 8.53616
2 0.182325 13.376 8.81236
3 39.7777 13.226 8.03923
2 39.0666 13.1623 8.64277
2 6.07114 3.19659 9.67206
3 5.22873 3.24467 9.11371
2 4.59209 3.17654 9.97524
2 0.00438239 5.25244 9.79793
3 39.7128 5.25725 9.07467
2 39.2699 5.25635 9.65784
2 15.937 6.19548 9.68353
3 15.2313 6.275 9.08838
2 14.4115 6.37166 9.70683
2 2.96086 9.06842 9.68001
3 2.24552 9.26591 9.08197
2 1.44486 9.07477 9.70344
2 5.99191 12.1901 9.78775
3 5.2835 12.2466 9.07802
2 4.25749 12.2049 9.665
2 8.93405 38.7746 10.8065
3 8.27409 38.7726 10.1006
2 7.55641 38.6913 10.6479
2 15.9766 1.39101 10.5273
3 15.2577 1.22739 10.0913
2 14.4758 1.21214 10.4862
2 14.9712 10.2432 10.5577
3 14.3015 10.2185 10.0614
2 13.5474 10.2436 10.6082
2 10.0121 13.2716 10.7697
3 9.24189 13.2412 10.063
2 8.4072 13.0801 10.7319
2 13.9914 14.3131 10.6148
3 13.2543 14.2319 10.0538
2 12.4658 14.3465 10.5297
2 2.89988 15.3894 10.7795
3 2.19683 15.2508 10.1108
2 1.63046 15.1893 10.6621
2 9.96488 2.20382 11.7004
3 9.24307 2.22197 11.0872
2 8.70962 2.23887 11.6193
2 7.96854 6.30758 11.685
3 7.28862 6.26736 11.1065
2 6.50508 6.31468 11.5783
2 7.10836 16.1969 11.6811
3 6.23659 16.2493 11.0665
2 5.4124 16.2585 11.8341
2 5.06539 39.7682 12.6936
3 4.24611 39.7902 12.0658
2 3.47252 39.7724 12.5072
2 13.0592 39.749 12.8134
3 12.2077 39.7552 12.1116
2 11.4736 39.6904 12.5991
2 2.1575 2.29538 12.6142
3 1.25497 2.23381 12.122
2 0.405381 2.19175 12.6276
2 14.1393 4.16038 12.55
3 13.2292 4.20811 12.093
2 12.1946 4.46927 12.827
2 3.04517 6.18663 12.719
3 2.23979 6.24341 12.124
2 1.33885 6.1258 12.7579
2 11.862 8.45023 12.7533
3 11.2905 8.22168 12.1142
2 10.6473 8.25914 12.7609
2 17.9063 8.41631 12.7989
3 17.2524 8.2401 12.0889
2 16.4994 8.3361 12.6816
2 0.017841 9.40126 12.7007
3 39.777 9.24645 12.131
2 38.9428 9.17299 12.5891
2 7.98412 10.4114 12.6668
3 7.23516 10.2054 12.09
2 6.53992 10.3372 12.6209
2 10.9196 17.3022 12.8033
3 10.2503 17.2646 12.0759
2 9.53415 17.3972 12.8026
2 4.02908 10.1269 13.6851
3 3.23885 10.267 13.0706
2 2.43866 10.2856 13.7413
2 16.9657 12.2101 13.718
3 16.26 12.2765 13.093
2 15.4637 12.2679 13.7835
2 8.87871 39.6547 14.6486
3 8.319 39.7588 14.0791
2 7.3692 39.7959 14.5663
2 5.93613 3.19373 14.8497
3 5.26256 3.27819 14.084
2 4.3598 3.18302 14.8434
2 11.1514 12.2171 14.656
3 10.272 12.272 14.1238
2 9.50199 12.2859 14.7744
2 2.93429 14.1494 14.7545
3 2.24208 14.2977 14.1216
2 1.55233 14.3778 14.735
2 14.2276 15.2663 14.7135
3 13.2473 15.2392 14.1025
2 12.404 15.402 14.7412
2 12.0155 2.24087 15.6834
3 11.2471 2.24324 15.1275
2 10.4351 2.37444 15.8255
2 9.00781 6.33377 15.6376
3 8.25578 6.24126 15.0936
2 7.61492 6.29043 15.7298
2 16.0068 6.21087 15.5627
3 15.2827 6.2657 15.0672
2 14.3642 6.20344 15.7863
2 6.78712 13.1038 15.6585
3 6.25933 13.2269 15.091
2 5.42329 13.4394 15.6998
2 3.94963 6.24374 16.7026
3 3.23953 6.26311 16.0593
2 2.62765 6.37848 16.5316
2 13.1157 9.2851 16.6681
3 12.239 9.23778 16.0456
2 11.4442 9.23221 16.7828
2 7.04762 9.27361 17.6633
3 6.25048 9.19707 17.107
2 5.36923 9.1804 17.5285
281
Atoms. Timestep: 4
1 8.32041 8.29899 8.23749
2 9.44916 7.94794 8.21949
2 7.99515 8.98145 9.23858
2 7.85194 7.16867 8.42488
2 7.73209 8.54459 7.51875
2 6.96826 3.16614 40.1254
3 6.21738 3.22653 39.5547
2 5.50617 3.19349 40.1617
2 11.0114 4.25683 40.2747
3 10.2335 4.24 39.6015
2 9.52947 4.28422 40.2912
2 3.97901 7.29498 40.0962
3 3.23936 7.21994 39.536
2 2.68561 7.31631 40.2658
2 14.0439 7.32056 40.1847
3 13.2274 7.21869 39.6015
2 12.5641 7.27923 40.2499
2 8.05437 8.12849 40.4165
3 7.27684 8.27284 39.6107
2 6.45191 8.12784 40.0311
2 4.89768 11.1205 40.3504
3 4.24236 11.2807 39.5746
2 3.37715 11.1677 40.2184
2 11.174 11.136 40.2413
3 10.2916 11.2182 39.6209
2 9.48246 11.0894 40.0775
2 8.07716 14.1444 -0.116378
3 7.19905 14.2289 40.5504
2 6.49425 14.1661 -0.233925
2 8.87527 0.197953 0.582682
3 8.2868 0.312657 0.127475
2 7.43578 0.0465533 0.794588
2 15.9608 10.2671 0.71374
3 15.2492 10.2845 0.0472802
2 14.4247 10.3056 0.740631
2 12.9221 14.1525 0.742612
3 12.2408 14.2924 0.0828743
2 11.3643 14.0202 0.549294
2 4.13153 1.35039 1.83646
3 3.18492 1.25472 1.05912
2 2.50011 1.12128 1.701
2 12.9878 1.2332 1.77113
3 12.2331 1.21023 1.08108
2 11.4718 1.36361 1.67554
2 16.0732 4.27169 1.56842
3 15.2662 4.21039 1.13385
2 14.4296 4.37955 1.71285
2 2.07457 5.38525 1.54337
3 1.24431 5.28481 1.05058
2 0.375822 5.39987 1.65257
2 10.9822 7.23461 1.70922
3 10.2562 7.23644 1.07086
2 9.42448 7.44364 1.67761
2 1.02858 9.22285 1.83118
3 0.307424 9.24531 1.02893
2 -0.521176 9.32193 1.56401
2 3.05097 13.1672 1.64601
3 2.2587 13.227 1.10143
2 1.47288 13.3772 1.56133
2 6.91625 4.66224 2.52959
3 6.26952 4.2576 2.06221
2 5.45585 4.12357 2.65421
2 4.96352 8.16105 2.52573
3 4.28733 8.28991 2.02248
2 3.55409 8.05879 2.69705
2 8.1388 11.0837 2.71271
3 7.24731 11.2746 2.11988
2 6.9136 10.958 2.61065
2 6.02962 16.5855 2.58812
3 5.26538 16.2821 2.1257
2 4.36154 16.3266 2.73254
2 10.0436 17.2165 2.71604
3 9.24536 17.2368 2.08659
2 8.62506 17.2792 2.70273
2 18.135 7.41721 3.64281
3 17.2893 7.28363 3.079
2 16.4391 7.23502 3.72002
2 12.7207 10.2871 3.77286
3 12.2658 10.2984 3.08095
2 11.5742 10.1501 3.4399
2 16.1455 13.271 3.84385
3 15.2979 13.2705 3.05011
2 14.5212 13.1938 3.81263
2 6.95622 38.4458 4.51687
3 6.24572 38.7544 4.04146
2 5.4937 38.8652 4.56268
2 10.8903 39.7126 4.69944
3 10.2476 39.7145 4.06036
2 9.49172 39.5249 4.55814
2 16.101 1.12342 4.84577
3 15.2009 1.24224 4.07899
2 14.2729 1.36767 4.84384
2 0.987384 2.09989 4.76324
3 0.186941 2.26679 4.08646
2 -0.583706 1.99691 4.77995
2 11.2565 4.22707 4.76883